'MASS':  2.1801713655e-25 #[kg]

'ATOMIC NUMBER': 54

'ELECTRONIC CONFIGURATION': '[Kr] 4d10 5s2 5p6'

'# VALENCE ELECTRONS': 8 

'FIRST IONIZATION ENERGY': 12.1298 #[eV]

'SECOND IONIZATION ENERGY': 21.20979 #[eV]