'MASS':  6.6335209e-26 #[kg]

'ATOMIC NUMBER': 18

'ELECTRONIC CONFIGURATION': '[Ne] 3s2 3p6'

'# VALENCE ELECTRONS': 8 

'FIRST IONIZATION ENERGY': 15.7596 #[eV]

'SECOND IONIZATION ENERGY': 27.6296 #[eV]