'MASS':  1.39153e-25 #[kg]

'ATOMIC NUMBER': 36

'ELECTRONIC CONFIGURATION': '[Ar] 3d10 4s2 4p6'

'# VALENCE ELECTRONS': 8 

'FIRST IONIZATION ENERGY': 13.9996 #[eV]

'SECOND IONIZATION ENERGY': 24.3599 #[eV]