'MASS':  3.35091773e-26 #[kg]

'ATOMIC NUMBER': 10

'ELECTRONIC CONFIGURATION': '[He] 2s2 2p6'

'# VALENCE ELECTRONS': 8 

'FIRST IONIZATION ENERGY': 21.5646 #[eV]

'SECOND IONIZATION ENERGY': 40.96328 #[eV]